237
inactive_val51_TS3_redo_optimized.log	Energy: -3583029.8753013
H         -5.28805       -1.26460        1.09660
H         -4.06322       -1.81478        0.37638
H          2.63737       -0.29209       -4.38000
H          2.63743       -1.55969       -3.53806
N         -4.14842       -3.58695        3.28284
N         -2.38458       -4.89846        1.64348
N          0.38300       -1.65970        2.68041
N         -0.21810       -5.69798        3.13620
C         -3.04549       -1.87999        4.63854
C         -3.22911       -3.32840        4.24571
C         -4.45610       -4.94700        2.89873
C         -3.35090       -5.69160        2.14770
C         -1.23516       -5.39157        0.92241
C         -0.15236       -5.99633        1.82244
C         -0.61563       -4.25298        0.09014
C          0.29148       -3.27029        0.83847
C         -0.39676       -2.35479        1.82936
C          0.78963       -6.20067        4.04431
O         -2.60373       -4.23386        4.80865
O         -3.37795       -6.91248        2.03001
O          0.77514       -6.63480        1.32666
O         -1.62431       -2.18505        1.82134
H         -3.46128       -1.74309        5.64252
H         -5.34131       -4.92478        2.25721
H          0.59459       -5.78970        5.03672
H          0.77148       -7.29509        4.09270
H          1.78601       -5.89497        3.71096
H         -4.68528       -5.54386        3.78494
H         -1.98090       -1.64607        4.67773
H         -3.53596       -1.18336        3.95340
H         -0.02659       -0.89345        3.21683
H          1.38777       -1.71244        2.61721
H         -4.44995       -2.85129        2.64298
H         -2.46425       -3.89218        1.75080
H         -1.05567       -5.26759        3.51648
H          2.43090       -1.68385       -0.84613
H          2.87417       -1.46672        0.73218
H         -0.01191       -4.70515       -0.69875
H         -1.43112       -3.70646       -0.39423
H         -1.55626       -6.19267        0.25035
H          0.73615       -2.60744        0.08474
H          1.12585       -3.79299        1.32134
H          3.69225       -0.70255       -0.44738
N          2.56144        4.17387       -0.49612
N         -2.55772        0.45866        1.43001
C         -2.26380        1.19755        0.17982
C          3.76354        3.44055       -2.52142
C          2.85304        4.44555       -1.79640
C          3.68737        1.99667       -2.00765
C          1.46931        4.81421        0.22558
C          1.87235        5.29114        1.61767
C          0.86617        6.28411        2.22454
C         -0.58349        5.78320        2.22891
C          1.30451        6.69138        3.63360
C         -2.74270        0.34935       -1.00470
C         -0.79031        1.58458        0.02354
C          0.21635        0.43067       -0.10515
C          1.60533        1.01395       -0.29673
O          2.44274        5.44776       -2.38285
O          2.16493        1.63357        0.60920
O         -2.82304        0.92880       -2.11400
O         -2.98371       -0.86557       -0.78652
S          1.99998        1.28784       -2.04056
H          4.80044        3.78825       -2.43403
H          1.14916        5.67001       -0.37658
H          0.62072        4.12284        0.27312
H          3.49372        3.49819       -3.57900
H          2.77652        3.24475       -0.14852
H          2.01216        4.42851        2.28533
H          2.85021        5.78449        1.54329
H          0.89458        7.18275        1.59021
H          0.63603        7.45221        4.05323
H          1.29043        5.82621        4.31054
H          2.32369        7.09532        3.63577
H         -1.25180        6.56449        2.60975
H         -0.94418        5.49845        1.23470
H         -0.70513        4.91204        2.88391
H         -0.72884        2.22891       -0.85569
H         -0.51360        2.21543        0.87360
H          0.24951       -0.15018        0.81676
H         -0.03640       -0.24270       -0.93108
H          4.31198        1.34312       -2.61978
H          4.06875        1.87547       -0.98864
H         -2.84203        2.12582        0.21192
H         -3.61497        0.44847        1.58442
H         -2.23903       -0.52221        1.39023
H         -2.13786        0.87491        2.26739
N         -1.91502        3.50246       -2.84587
C         -0.74945        8.24943       -2.52877
C         -1.34159        7.02614       -1.83564
C         -1.01196        5.74289       -2.59237
C         -1.66924        4.51551       -1.98655
O         -1.95266        4.44965       -0.78846
H          0.33903        8.15582       -2.61792
H         -0.96791        9.16807       -1.97235
H         -1.15718        8.36609       -3.54052
H         -2.42952        7.13081       -1.74483
H         -0.95818        6.94664       -0.81265
H         -1.31357        5.83917       -3.64411
H          0.07606        5.58161       -2.59376
H         -1.56354        3.54671       -3.78929
H         -2.26066        2.59689       -2.50737
C         -8.80888        3.48613        1.47210
C         -7.30698        3.20846        1.53686
C         -6.97955        1.97295        2.38739
C         -5.50697        1.58433        2.27043
O         -4.64229        2.36107        2.72143
O         -5.23452        0.47806        1.68246
H         -9.02092        4.38610        0.88357
H         -9.23129        3.62986        2.47504
H         -9.33380        2.64543        1.00316
H         -6.93093        3.05749        0.51900
H         -6.76990        4.07136        1.94585
H         -7.19727        2.19335        3.44042
H         -7.60841        1.13064        2.08350
N         -0.21720       -3.43593       -3.57820
N         -3.49953       -1.94329       -3.35651
N         -4.77450        0.41436       -4.21244
C          2.00757       -4.42819       -3.79772
C          1.06272       -3.41273       -3.17416
C          3.12737       -4.96532       -2.88397
C          4.25012       -3.95257       -2.64190
C          2.58651       -5.51922       -1.56388
C         -1.15247       -2.40504       -3.18844
C         -2.48611       -2.62649       -3.91017
C         -4.88124       -1.99818       -3.78531
C         -5.32185       -0.76214       -4.59694
C         -5.77268       -2.11330       -2.52090
C         -7.26058       -2.17357       -2.84181
C         -5.27806        1.70337       -4.64991
C         -5.72843        2.56038       -3.45538
C         -6.81933        1.89532       -2.65284
C         -8.13694        1.88047       -3.11194
C         -6.53687        1.22433       -1.46060
C         -9.14310        1.22741       -2.40692
C         -7.52640        0.55560       -0.75012
C         -8.83315        0.56066       -1.22375
O          1.44782       -2.55590       -2.36039
O         -2.54897       -3.34077       -4.91126
O         -6.17838       -0.86305       -5.47452
O         -5.37336       -3.26474       -1.79950
O         -9.78241       -0.10383       -0.48824
H          2.45548       -3.92555       -4.66584
H         -0.76531       -1.41406       -3.46059
H         -4.50121        2.23984       -5.21052
H         -6.11168        1.50845       -5.32931
H          1.41517       -5.26771       -4.18320
H         -1.29384       -2.39768       -2.10392
H         -6.07326        3.52867       -3.84120
H         -4.86285        2.76333       -2.81436
H         -4.04888        0.41874       -3.49375
H          3.92067       -3.12410       -2.00985
H          5.09615       -4.43174       -2.13681
H          1.75589       -6.21897       -1.71179
H          3.36992       -6.05009       -1.01341
H          3.56231       -5.80515       -3.44502
H         -0.53682       -4.05141       -4.31749
H         -3.32425       -1.54352       -2.42925
H         -5.02279       -2.87381       -4.42337
H         -5.57785       -1.22082       -1.91034
H         -7.60903       -1.25956       -3.33058
H         -7.47073       -3.02423       -3.49851
H         -7.81670       -2.30326       -1.90778
H         -8.38535        2.38494       -4.04310
H        -10.16442        1.23091       -2.78384
H         -7.27779        0.03090        0.16539
H         -5.52187        1.21348       -1.07131
H        -10.61221       -0.11479       -0.97890
H         -5.33920       -3.02515       -0.85628
H          2.23421       -4.70688       -0.91991
H          4.61805       -3.52565       -3.58087
N          7.69176       -0.79909       -1.27093
N          5.49109       -0.55640       -1.17720
C          8.81926       -0.14098       -4.18522
C          8.11718       -1.40084       -3.67141
C          7.21636       -1.09002       -2.52394
C          5.85572       -0.93019       -2.45030
C          6.62581       -0.48957       -0.50318
H          8.07821        0.60279       -4.50103
H          9.45920       -0.37288       -5.04647
H          9.44617        0.30052       -3.40152
H          7.51773       -1.85869       -4.46775
H          8.86896       -2.13859       -3.36500
H          8.70395       -0.80642       -0.98508
H          5.11937       -1.06790       -3.23332
H          6.70411       -0.23370        0.54309
C         13.95111       -0.21629       -2.51791
C         13.70311        0.37701       -1.13073
C         12.59105       -0.34047       -0.36703
C         11.16366       -0.12830       -0.92476
O         10.95587        0.84836       -1.67481
O         10.30785       -0.97808       -0.52772
H         13.04068       -0.14397       -3.12085
H         14.23286       -1.27536       -2.44813
H         14.75540        0.31255       -3.04501
H         14.63385        0.33598       -0.54498
H         13.42783        1.43177       -1.23673
H         12.78327       -1.41962       -0.31890
H         12.56982        0.00916        0.67467
N          2.74233       -0.99648       -0.16058
O          2.98319       -1.19208       -4.37139
N          1.56952        1.63036        3.46389
N         -1.54964        2.76477        4.86219
C          5.33377        2.79793        1.79990
C          3.59523        0.60915        4.33511
C          2.27529        1.34421        4.58386
C          4.15993       -0.08268        5.57920
C          3.20966       -1.19816        6.02605
C          5.55724       -0.63539        5.29263
C          0.48187        2.55991        3.55993
C         -0.77870        1.93873        4.14800
C         -2.86631        2.39962        5.36772
O          1.92688        1.74311        5.69270
O         -1.08316        0.76342        3.90489
H         -3.14335        3.11284        6.14678
H         -3.60712        2.41107        4.56055
H         -2.81398        1.39733        5.80023
H          6.25177        0.15844        5.00348
H          5.95814       -1.13794        6.17984
H          5.52913       -1.36376        4.47350
H          3.10576       -1.95696        5.23897
H          3.60173       -1.70165        6.91615
H          2.21593       -0.81092        6.26854
H          4.22078        0.66186        6.38311
H          3.45343       -0.14241        3.55038
H          1.91757        1.41096        2.52813
H          0.24175        2.89929        2.54905
H          0.78249        3.43638        4.14596
H         -1.22940        3.71188        4.99217
O         -4.87274       -2.11321        0.83950
N          4.47874        1.60353        3.74279
C          4.84249        1.51282        2.42333
O          4.73178        0.46985        1.80008
H          4.47227        3.33911        1.39236
H          5.84357        3.44821        2.51795
H          6.01032        2.55990        0.97668
H          4.50566        2.51328        4.18113
