237       
inactive_int3 Energy: -3585507.2704485
C 0.131251 7.050732 7.017989
C -0.106665 8.352616 6.285212
O -0.906703 9.204916 6.665603
N 0.641352 8.524995 5.159747
C 0.530830 9.722162 4.358413
C -0.748719 9.874220 3.533189
O -1.002078 10.949839 2.999965
N -1.528013 8.775210 3.454027
C -2.755718 8.745630 2.692982
C -4.015122 8.929302 3.561723
O -5.132531 8.793387 3.066562
C -2.861170 7.514956 1.782350
C -2.851314 6.125707 2.459222
C -1.463467 5.606065 2.802817
N -0.970058 4.636543 2.018284
O -0.814414 6.063837 3.759053
N -3.822177 9.301570 4.842990
C -4.942370 9.678634 5.683128
C -4.455205 -5.190346 4.396164
C -4.023554 -3.925819 3.681890
O -4.186046 -3.796376 2.473766
N -3.417125 -2.992623 4.458329
C -2.765893 -1.813477 3.922598
C -1.482543 -1.596066 4.716584
O -1.430239 -1.791031 5.930856
C -3.670609 -0.551857 4.011707
C -2.914786 0.732810 3.652557
C -4.883073 -0.718859 3.093048
N -0.434769 -1.103917 4.012728
C 0.718046 -0.545963 4.679170
C 1.808147 -1.572290 5.004011
O 2.053559 -2.510318 4.245600
N 2.499156 -1.333313 6.137421
C 3.719967 -2.037511 6.506355
C -3.361941 -4.112141 -1.711012
C -2.169788 -4.798849 -1.032423
O -1.536618 -5.682760 -1.620397
C -3.474274 -2.615106 -1.444230
N -1.871573 -4.422593 0.228936
C -0.759532 -5.014624 0.955920
C -0.819975 -4.658066 2.436557
C 0.005447 -5.587988 3.332716
C 1.486573 -5.615013 2.945361
C -0.168683 -5.181981 4.798390
C 2.523192 -7.676948 -1.853666
C 2.797303 -6.211588 -1.523888
C 2.019793 -5.256142 -2.427424
C 2.503671 -3.817248 -2.298174
N 1.613721 -2.854323 -2.636502
O 3.652204 -3.544978 -1.946406
C 9.693896 -1.796664 2.830265
C 8.211606 -1.748583 2.421983
C 7.357358 -0.932037 3.392685
C 5.863534 -0.793310 3.050845
O 5.378637 -1.534529 2.152298
O 5.221613 0.067383 3.718691
C -2.898139 3.983644 -2.585667
C -1.723254 3.679169 -1.663092
O -1.868956 3.344461 -0.472228
C -4.100736 4.688905 -1.938143
C -4.855979 3.815072 -0.930567
C -3.692094 6.031610 -1.328944
N -0.500188 3.714898 -2.217007
C 0.690611 3.292109 -1.515181
C 1.914946 3.538062 -2.400804
O 1.829267 4.263725 -3.391663
N 3.030841 2.935605 -1.960062
C 4.367888 3.353280 -2.337755
C 5.200545 2.301050 -3.091401
O 6.166543 2.674574 -3.758634
C 5.097580 3.764328 -1.039325
C 6.558400 4.152051 -1.209543
O 4.336255 4.852792 -0.510488
N 4.868236 1.010452 -2.900435
C 5.749019 -0.085985 -3.269904
C 6.236683 -0.845696 -2.024106
C 7.007572 0.027131 -1.062768
C 8.361733 0.296381 -1.263191
C 6.387457 0.609715 0.046519
C 9.079600 1.107833 -0.388021
C 7.086741 1.423010 0.931305
C 8.437797 1.669629 0.712843
O 9.096976 2.474459 1.610890
C -8.711107 -1.474775 -3.779875
C -8.048111 -0.112350 -3.525757
C -7.115665 -0.103584 -2.354177
C -5.768756 0.138432 -2.230775
N -7.557196 -0.358197 -1.080774
C -6.494947 -0.261836 -0.255884
N -5.382624 0.040013 -0.908504
C -13.879042 -2.174842 -2.729064
C -13.655941 -1.975679 -1.226748
C -12.588333 -0.933331 -0.878413
C -11.114315 -1.379370 -1.039081
O -10.874450 -2.545874 -1.407408
O -10.259478 -0.477599 -0.761587
N 2.732403 -1.257357 1.738041
C 2.206260 -1.346647 0.351195
C 2.576084 -0.085866 -0.451302
O 2.894828 0.960603 0.178622
C 0.674547 -1.595153 0.326231
C -0.213493 -0.388370 -0.007503
C -1.695838 -0.804858 -0.058284
N -2.555198 0.477125 -0.344707
O -2.151359 -1.426184 0.953906
O 2.478334 -0.186861 -1.696874
O 2.891108 1.285335 3.000165
O -1.743108 1.065942 -3.143466
H -12.947901 -2.501302 -3.202336
H -7.952376 -2.234676 -4.001582
H 1.455304 -7.908265 -1.764422
H 10.279889 -2.389520 2.118753
H -0.417482 7.066852 7.959851
H -3.201396 3.010654 -2.991703
H -9.388852 -1.408835 -4.639160
H -14.198585 -1.238899 -3.206690
H -5.456317 10.556249 5.276586
H -4.562961 9.907184 6.680653
H 1.379913 9.765460 3.670943
H 5.212328 -0.779249 -3.926894
H 0.622626 2.237552 -1.223802
H -4.281388 -4.600545 -1.363833
H -0.810999 -6.101864 0.823415
H -3.729960 -5.977722 4.162737
H 3.629392 -3.077981 6.190219
H 3.838918 -1.995252 7.591471
H 9.819682 -2.241185 3.826029
H 3.072564 -8.343680 -1.179330
H -14.649170 -2.932249 -2.921524
H -9.292174 -1.812031 -2.915775
H -3.260411 -4.317823 -2.779679
H 0.193507 -4.694730 0.509675
H 2.830009 -7.910699 -2.880898
H 10.121259 -0.786447 2.860794
H -5.666209 8.860923 5.747117
H 4.588081 -1.588646 6.010856
H 0.823843 3.871589 -0.593596
H -2.536634 4.576006 -3.435798
H 6.586002 0.345178 -3.823713
H 0.582017 10.599207 5.008057
H -4.512397 -5.079789 5.483578
H -5.426354 -5.501934 4.006748
H 4.280869 4.223049 -2.993196
H -2.742763 9.631635 2.047831
H -0.225233 6.216990 6.402058
H 1.197470 6.898611 7.212615
H -14.608519 -1.678949 -0.762594
H -13.363180 -2.932881 -0.781710
H -12.727626 -0.021411 -1.475027
H -12.702351 -0.618263 0.166926
H -7.484945 0.209385 -4.410637
H -8.833150 0.635002 -3.355088
H -8.570728 -0.533434 -0.850276
H -6.567133 -0.424623 0.809445
H -5.054320 0.377230 -3.008933
H -2.316790 -3.605903 0.640585
H -0.497225 -3.619616 2.594244
H -1.866305 -4.709848 2.749888
H -0.398867 -6.604661 3.206016
H 0.350263 -5.878458 5.468143
H 0.241796 -4.180846 4.968358
H -1.228958 -5.162563 5.080738
H 2.048698 -6.284560 3.607455
H 1.632771 -5.967935 1.918113
H 1.924994 -4.615946 3.038660
H -3.257905 -3.172899 5.440221
H -2.544042 -1.993073 2.867389
H -5.484896 -1.588966 3.367468
H -5.523466 0.169888 3.145637
H -4.549450 -0.859486 2.059026
H -4.011686 -0.473803 5.053801
H -2.449977 0.629946 2.665099
H -3.609975 1.578452 3.614864
H -2.130028 0.978255 4.375536
H -0.564051 -0.972391 3.017310
H 0.381193 -0.046665 5.593867
H 1.184414 0.208742 4.032843
H 2.272929 -0.492962 6.646532
H 3.865555 -5.993042 -1.615592
H 2.531336 -6.010232 -0.478149
H 2.164359 -5.542705 -3.479516
H 0.941718 -5.326307 -2.231700
H 0.630457 -3.069397 -2.732113
H 1.884529 -1.883012 -2.462147
H 6.863832 -1.680077 -2.361657
H 5.374067 -1.299093 -1.523205
H 8.872304 -0.138172 -2.119777
H 5.337188 0.415557 0.237902
H 6.595843 1.843827 1.803789
H 10.136731 1.300124 -0.564392
H 10.018189 2.557138 1.338999
H 7.807818 -2.764454 2.350899
H 8.122756 -1.317526 1.418475
H 7.411769 -1.366835 4.402042
H 7.756518 0.085437 3.487443
H 3.801894 -1.360441 1.816717
H 2.537512 -0.337201 2.170622
H 2.343563 -1.972013 2.368794
H 2.717956 -2.191668 -0.116030
H 0.469992 -2.372234 -0.412906
H 0.361750 -2.018352 1.287278
H -0.113512 0.395268 0.759431
H 0.097872 0.050008 -0.962525
H -2.471321 1.139095 0.429752
H -2.256100 0.972038 -1.195762
H 2.951394 2.326394 -1.137039
H -0.342741 4.089673 -3.145637
H -4.791113 4.895995 -2.767524
H -4.252367 3.632779 -0.037464
H -5.785110 4.309650 -0.625247
H -3.224542 6.687972 -2.072740
H -4.560547 6.554605 -0.913228
H -2.972115 5.880791 -0.516873
H -5.120159 2.840855 -1.356397
H 5.032725 2.911722 -0.349215
H 7.158248 3.302541 -1.543005
H 6.660306 4.960798 -1.939146
H 6.956708 4.485450 -0.242988
H -3.808160 7.611701 1.246474
H -2.059949 7.569327 1.036676
H -3.350541 5.415475 1.792166
H -3.432696 6.156669 3.387538
H -0.042716 4.290151 2.224680
H -1.440922 4.252616 1.199408
H 1.113756 7.718154 4.776851
H -2.879016 9.400314 5.197494
H -1.193393 7.889426 3.835357
S -1.908085 -1.753460 -1.789394
H -3.578751 0.227824 -0.452779
H -4.275287 -2.178064 -2.042973
H -3.706418 -2.408646 -0.392118
H 3.761616 0.909259 3.300463
H 3.018754 1.500095 2.057886
H -0.814742 1.202157 -3.371051
H -1.865646 0.094716 -3.089810
H 3.988459 0.766703 -2.441780
H 4.677247 5.048483 0.369715
