237       
inactive_Val51_ES Energy: -3585546.0220448
H 5.684240 1.569759 0.770354
H 4.401724 1.892233 0.024139
H -2.375101 -0.484682 -4.578557
H -2.665898 0.821814 -3.854628
N 4.370390 4.083361 2.649406
N 2.643041 5.226298 0.830613
N 0.113949 2.087637 2.074600
N 0.438327 6.181746 2.184253
C 3.241101 2.588577 4.228036
C 3.447550 3.965823 3.634316
C 4.701404 5.380754 2.100374
C 3.598719 6.061634 1.287688
C 1.518188 5.657651 0.033137
C 0.397253 6.322995 0.844013
C 0.936008 4.460747 -0.740993
C 0.088909 3.488575 0.086383
C 0.841982 2.655351 1.105429
C -0.594999 6.774127 3.008907
O 2.820221 4.942928 4.058480
O 3.617449 7.270554 1.081532
O -0.530558 6.880775 0.258469
O 2.065863 2.456962 1.024490
H 3.472137 2.639843 5.296251
H 5.571071 5.255329 1.449465
H -0.401590 6.504411 4.048810
H -0.604774 7.864954 2.909156
H -1.578632 6.397953 2.711224
H 4.964751 6.072777 2.904074
H 2.189557 2.314090 4.122638
H 3.863491 1.814734 3.768629
H 0.526626 1.370448 2.670602
H -0.891331 2.157426 2.063920
H 4.687927 3.267306 2.124846
H 2.764412 4.227099 0.965885
H 1.272426 5.809779 2.628231
H 0.296414 4.854842 -1.533211
H 1.765206 3.929941 -1.220530
H 1.859170 6.412601 -0.682052
H -0.391414 2.771529 -0.596111
H -0.730913 4.021606 0.581676
N -2.372943 -4.057479 0.287204
C -3.808923 -3.832015 -1.688757
C -2.841029 -4.651931 -0.835948
C -3.262114 -2.469902 -2.119664
C -1.434545 -4.728674 1.184895
C -1.429986 -4.004623 2.531181
C -0.375132 -4.512111 3.525920
C 1.039344 -4.048149 3.162298
C -0.733122 -4.042409 4.939153
O -2.493537 -5.788836 -1.163240
S -1.655735 -2.545105 -2.994030
H -4.731658 -3.649965 -1.122392
H -1.740209 -5.774479 1.296317
H -0.429949 -4.728911 0.743945
H -4.050688 -4.447244 -2.557838
H -2.710086 -3.130012 0.541416
H -1.273567 -2.930101 2.360984
H -2.430017 -4.110015 2.976896
H -0.391978 -5.612400 3.517772
H 0.033115 -4.340373 5.665303
H -0.809652 -2.947513 4.957053
H -1.696583 -4.447068 5.270325
H 1.777166 -4.483304 3.847761
H 1.329994 -4.324164 2.143749
H 1.110333 -2.955627 3.248886
H -3.951355 -2.000382 -2.825991
H -3.185477 -1.780493 -1.278436
H -0.881345 -2.882311 -1.945878
N 1.671497 -3.892784 -2.111701
C 0.683519 -8.610079 -0.998182
C 1.299369 -7.285656 -0.553638
C 0.969349 -6.151656 -1.519967
C 1.667086 -4.850948 -1.156817
O 2.167209 -4.663047 -0.045954
H -0.405956 -8.523820 -1.080204
H 0.909500 -9.411425 -0.285506
H 1.068447 -8.915842 -1.979041
H 2.387407 -7.384946 -0.463611
H 0.935794 -7.016831 0.444016
H 1.243768 -6.431629 -2.546560
H -0.116129 -5.972191 -1.528423
H 1.315639 -4.090062 -3.034264
H 2.202233 -3.027117 -1.959335
C 8.882410 -3.297766 1.869232
C 7.489037 -2.711021 2.093551
C 7.529592 -1.316072 2.738193
C 6.143575 -0.676524 2.713397
O 5.378966 -0.815805 3.688726
O 5.824287 -0.076183 1.626346
H 8.823283 -4.305532 1.443016
H 9.446151 -3.358629 2.808902
H 9.451787 -2.671318 1.172414
H 6.975323 -2.643957 1.128622
H 6.892165 -3.378982 2.726938
H 7.879547 -1.394721 3.773202
H 8.227732 -0.681649 2.180016
N 0.184382 2.802876 -3.905358
N 3.459314 1.263757 -3.650079
N 4.705575 -1.217405 -4.133259
C -2.066345 3.679435 -4.364913
C -1.124970 2.743627 -3.611328
C -3.121923 4.383349 -3.486685
C -4.235010 3.444890 -3.011938
C -2.481012 5.124564 -2.311224
C 1.134788 1.838621 -3.391301
C 2.431180 1.916530 -4.213003
C 4.810007 1.229451 -4.181209
C 5.193646 -0.139010 -4.785107
C 5.799788 1.574131 -3.036297
C 7.252908 1.582739 -3.493324
C 5.167117 -2.573028 -4.360099
C 5.772212 -3.181433 -3.084343
C 6.926408 -2.372890 -2.541916
C 8.165228 -2.368778 -3.184300
C 6.781441 -1.574275 -1.405019
C 9.225867 -1.604872 -2.706842
C 7.826541 -0.799263 -0.915865
C 9.053206 -0.817896 -1.569914
O -1.547223 1.928071 -2.771296
O 2.444766 2.504703 -5.294326
O 5.954824 -0.205012 -5.750268
O 5.435272 2.839125 -2.509391
O 10.065264 -0.044320 -1.057362
H -2.567163 3.059294 -5.120029
H 0.721693 0.825522 -3.473654
H 4.333015 -3.200567 -4.700541
H 5.907175 -2.531957 -5.163733
H -1.471853 4.430295 -4.899460
H 1.342157 2.013246 -2.329429
H 6.099220 -4.203448 -3.318301
H 4.988790 -3.260623 -2.322694
H 4.080933 -1.090331 -3.335194
H -3.862982 2.706685 -2.297169
H -5.030928 4.015662 -2.520340
H -1.680684 5.801326 -2.631879
H -3.222489 5.724473 -1.773996
H -3.581569 5.133163 -4.146361
H 0.523803 3.353230 -4.686936
H 3.372421 1.001112 -2.662312
H 4.892285 1.970919 -4.979219
H 5.676807 0.809521 -2.258499
H 7.574922 0.595482 -3.836135
H 7.390771 2.300359 -4.309024
H 7.885071 1.880586 -2.650401
H 8.307209 -2.968858 -4.080324
H 10.182963 -1.616518 -3.225689
H 7.673748 -0.184278 -0.035106
H 5.829206 -1.541780 -0.883125
H 10.811386 -0.057117 -1.667768
H 5.506410 2.795537 -1.539657
H -2.058759 4.413976 -1.591951
H -4.683835 2.897736 -3.848222
N -7.416197 0.197279 -1.132787
N -5.191574 0.116461 -1.079211
C -8.901746 -0.548480 -3.795286
C -7.945445 0.625021 -3.551056
C -6.992341 0.390537 -2.423191
C -5.620583 0.327164 -2.371944
C -6.308782 0.038089 -0.376561
H -8.337543 -1.453259 -4.050146
H -9.578993 -0.323629 -4.628424
H -9.510431 -0.766331 -2.910563
H -7.355488 0.831200 -4.452470
H -8.534556 1.528059 -3.342958
H -8.416942 0.222302 -0.812840
H -4.922554 0.411800 -3.195292
H -6.364549 -0.115311 0.691748
C -13.978301 -0.137314 -2.011158
C -13.623895 -0.366032 -0.540164
C -12.365595 0.377987 -0.089004
C -11.019300 -0.196635 -0.594035
O -11.016249 -1.304578 -1.167645
O -10.010467 0.535342 -0.344837
H -13.155206 -0.476021 -2.647816
H -14.152696 0.928081 -2.212558
H -14.884058 -0.687270 -2.296267
H -14.472383 -0.053193 0.087018
H -13.472207 -1.437879 -0.372784
H -12.412378 1.435071 -0.381843
H -12.306619 0.377988 1.007933
O -2.954332 0.287793 -4.616041
O 5.188525 2.331231 0.405651
N 3.143626 -0.163147 1.560359
C 2.797625 -1.183624 0.537655
C 3.220626 -0.672596 -0.838915
O 3.142325 -1.490289 -1.787482
C 1.296945 -1.478149 0.531513
C 0.455876 -0.459829 -0.244855
C -0.922844 -0.320345 0.373001
N -1.874644 0.260275 -0.370515
O -1.110207 -0.701838 1.536765
O 3.530470 0.540191 -0.935978
H 3.347032 -2.095759 0.784061
H 1.150565 -2.480513 0.124359
H 0.941410 -1.507844 1.563504
H 0.924132 0.531852 -0.229399
H 0.373284 -0.730425 -1.302836
H -2.856753 0.178285 -0.104230
H -1.677150 0.583341 -1.313186
H 4.203131 -0.068723 1.636273
H 2.762858 0.766938 1.314448
H 2.774104 -0.407209 2.486099
N -4.403663 -0.225222 3.054098
N -1.378075 0.160207 4.151875
N 1.606270 -1.075182 5.808240
C -5.342668 -2.382455 2.467669
C -4.389701 -1.263875 2.176372
C -3.449027 0.870790 3.045195
C -2.599764 0.711397 4.319045
C -4.114892 2.257268 2.990506
C -3.051689 3.339911 2.783280
C -5.166494 2.331061 1.884398
C -0.544994 -0.091369 5.298398
C 0.882573 -0.424422 4.883768
C 3.019807 -1.410513 5.679209
O -3.677502 -1.316256 1.182724
O -3.036332 1.037005 5.423263
O 1.331941 -0.063523 3.791780
H -4.795743 -3.327544 2.405821
H 3.145781 -2.451558 5.365814
H 3.513992 -1.255362 6.641038
H 3.498633 -0.776772 4.930882
H -5.834288 -2.314696 3.442770
H -6.109159 -2.396836 1.685980
H -5.019222 -0.280165 3.852557
H -2.832412 0.711152 2.157665
H -6.023940 1.687407 2.095970
H -5.539930 3.355935 1.785289
H -4.757256 2.023823 0.914847
H -4.594727 2.429025 3.962262
H -2.635728 3.269318 1.768691
H -3.495767 4.336422 2.870394
H -2.236175 3.280295 3.513996
H -1.129837 -0.227113 3.236670
H -0.961745 -0.890151 5.927893
H -0.517165 0.809273 5.924634
H 1.116301 -1.408411 6.624717
