237
inactive_val51_TS2_redo_optimized.log	Energy: -3583041.0015839
H         -5.17690       -1.15214        1.06141
H         -3.97523       -1.74478        0.34367
H          2.64054       -0.16578       -4.15617
H          2.62102       -1.52956       -3.52678
N          2.36690        4.11596       -0.36961
N         -2.39507        0.52194        1.31922
N          2.81006       -0.57717       -0.30930
C         -2.00825        1.19800        0.05572
C          3.71927        3.56077       -2.36450
C          2.81298        4.51697       -1.58290
C          3.73259        2.09870       -1.95182
C          1.35998        4.86538        0.36042
C          1.83232        5.32594        1.73797
C          0.92189        6.40094        2.35445
C         -0.56046        6.01006        2.39953
C          1.42073        6.78798        3.74891
C         -2.57005        0.36273       -1.09845
C         -0.50056        1.44599       -0.09611
C          0.42305        0.22894       -0.18374
C          1.91046        0.65506       -0.29836
O          2.55185        5.62468       -2.06539
O          2.30670        1.48858        0.63161
O         -2.63736        0.91295       -2.22316
O         -2.89747       -0.82630       -0.84186
S          2.09092        1.32491       -2.10270
H          4.73815        3.96413       -2.29056
H          1.10436        5.74052       -0.24380
H          0.45467        4.25359        0.43429
H          3.42464        3.66755       -3.41322
H          2.45680        3.13435       -0.07994
H          1.92210        4.46251        2.41335
H          2.84337        5.74109        1.63410
H          1.00282        7.28718        1.70755
H          0.82207        7.60147        4.17570
H          1.35563        5.93188        4.43448
H          2.46743        7.11312        3.72310
H         -1.16381        6.84719        2.77011
H         -0.95638        5.72110        1.42033
H         -0.72738        5.16697        3.08080
H         -0.37641        2.06108       -0.99121
H         -0.16981        2.07443        0.73425
H          0.35178       -0.34700        0.74434
H          0.14081       -0.43316       -1.01231
H          2.40022       -1.32345       -0.88428
H          2.89125       -0.89548        0.65834
H          3.99484       -0.46716       -0.70347
H          4.44968        1.55334       -2.56831
H          4.05132        1.97493       -0.91101
H         -2.49447        2.17830        0.05224
H         -3.45251        0.59045        1.45572
H         -2.15656       -0.48150        1.30281
H         -1.95648        0.90978        2.15897
N          7.46896       -0.71454       -1.27489
N          5.27778       -0.57118       -1.16951
C          8.86038        0.08512       -3.98741
C          7.93519       -1.10748       -3.70959
C          7.00684       -0.87892       -2.55976
C          5.64293       -0.78473       -2.48455
C          6.41081       -0.53491       -0.47457
H          8.27167        0.97121       -4.25202
H          9.53025       -0.14167       -4.82528
H          9.47384        0.33259       -3.11406
H          7.32918       -1.33758       -4.59381
H          8.54706       -1.99383       -3.49975
H          8.49457       -0.75679       -0.99712
H          4.90510       -0.86957       -3.27227
H          6.46811       -0.36364        0.58759
C         13.96783        0.08356       -2.24496
C         13.57914        0.15587       -0.76665
C         12.39033       -0.73361       -0.39785
C         11.00258       -0.24000       -0.86679
O         10.89900        0.89756       -1.36525
O         10.05734       -1.07124       -0.67147
H         13.12453        0.39914       -2.86695
H         14.24087       -0.94118       -2.53005
H         14.82258        0.73457       -2.46704
H         14.44590       -0.13116       -0.15283
H         13.33018        1.19207       -0.51344
H         12.53244       -1.75273       -0.78083
H         12.32529       -0.83578        0.69366
N         -4.10731       -3.60846        3.18771
N         -2.30327       -4.90080        1.56842
N          0.31535       -1.65812        2.83214
N         -0.19193       -5.72694        3.14077
C         -3.05252       -1.95746        4.64685
C         -3.21235       -3.38714        4.18156
C         -4.41389       -4.95464        2.75518
C         -3.28160       -5.69751        2.04377
C         -1.12472       -5.39141        0.89556
C         -0.09205       -6.02760        1.83021
C         -0.43591       -4.23533        0.14655
C          0.40845       -3.28371        1.00187
C         -0.37481       -2.35218        1.90870
C          0.81757       -6.19583        4.06327
O         -2.59408       -4.31408        4.71863
O         -3.29713       -6.91859        1.92866
O          0.84748       -6.67038        1.36230
O         -1.59030       -2.16928        1.76003
H         -3.57609       -1.84905        5.60302
H         -5.26545       -4.90223        2.07106
H          0.59545       -5.79015        5.05223
H          0.83514       -7.29002        4.11377
H          1.80923       -5.85908        3.74424
H         -4.69587       -5.57050        3.61286
H         -1.99561       -1.74488        4.81276
H         -3.45364       -1.22786        3.93873
H         -0.13837       -0.88379        3.32158
H          1.30997       -1.77805        2.94122
H         -4.39614       -2.84820        2.56941
H         -2.39684       -3.89454        1.66465
H         -1.03698       -5.29550        3.50551
H          0.22675       -4.67219       -0.60155
H         -1.20310       -3.66550       -0.38630
H         -1.41419       -6.16427        0.17771
H          0.95731       -2.63537        0.30672
H          1.16281       -3.83033        1.57984
N          1.33129        1.70760        3.26451
N         -1.72827        2.74151        4.86364
C          5.23583        2.90494        1.97207
C          3.27987        0.52607        4.10697
C          1.96153        1.25745        4.36953
C          3.74590       -0.33015        5.28879
C          2.78670       -1.50795        5.48411
C          5.17785       -0.82251        5.07583
C          0.23529        2.61007        3.46004
C         -0.95281        1.93565        4.13333
C         -3.00701        2.32592        5.41197
O          1.57280        1.52530        5.50650
O         -1.20184        0.73720        3.94610
H         -3.78828        2.38633        4.64619
H         -2.91673        1.29517        5.76121
H         -3.24895        2.97142        6.25978
H          5.87550        0.01358        4.97375
H          5.49868       -1.43768        5.92416
H          5.25411       -1.42742        4.16512
H          2.83912       -2.19542        4.62790
H          3.06092       -2.08609        6.37265
H          1.75067       -1.17721        5.60931
H          3.70696        0.29753        6.18709
H          3.18377       -0.11107        3.21913
H          1.69959        1.55104        2.30610
H         -0.09170        2.98249        2.48494
H          0.55106        3.47538        4.05643
H         -1.48797        3.72028        4.89898
N         -1.72788        3.50654       -2.84678
C         -0.87873        8.28983       -2.39561
C         -1.38895        7.01301       -1.73544
C         -0.92638        5.76989       -2.49059
C         -1.54132        4.49320       -1.94451
O         -1.85478        4.37697       -0.75734
H          0.21623        8.28923       -2.44788
H         -1.19205        9.18017       -1.83830
H         -1.26052        8.38445       -3.41978
H         -2.48443        7.02570       -1.68449
H         -1.03748        6.95395       -0.69989
H         -1.17086        5.86791       -3.55688
H          0.16796        5.68038       -2.42822
H         -1.33786        3.59397       -3.77179
H         -2.05157        2.57716       -2.55288
C         -8.91137        3.34420        1.43845
C         -7.39116        3.15143        1.45162
C         -6.95465        1.94347        2.29492
C         -5.45188        1.66752        2.17595
O         -4.65260        2.48041        2.67748
O         -5.09614        0.60969        1.54363
H         -9.19261        4.22334        0.84752
H         -9.30448        3.47779        2.45455
H         -9.40469        2.46935        0.99847
H         -7.04306        3.01681        0.42146
H         -6.89378        4.04811        1.83829
H         -7.18295        2.14362        3.34984
H         -7.51813        1.05579        1.99191
N         -0.08744       -3.33410       -3.51033
N         -3.40438       -1.92653       -3.36442
N         -4.72045        0.40403       -4.22473
C          2.12084       -4.32491       -3.74349
C          1.17580       -3.34094       -3.06943
C          3.24807       -4.90991       -2.87139
C          4.36881       -3.90689       -2.58956
C          2.72383       -5.53259       -1.57558
C         -1.05127       -2.32655       -3.12847
C         -2.36122       -2.58294       -3.88816
C         -4.77728       -2.01411       -3.81279
C         -5.24103       -0.78157       -4.61792
C         -5.67987       -2.14823       -2.55641
C         -7.16076       -2.26896       -2.89148
C         -5.25902        1.68568       -4.64555
C         -5.71352        2.51795       -3.43554
C         -6.80033        1.82845       -2.64826
C         -8.11642        1.81385       -3.11224
C         -6.51509        1.13097       -1.47215
C         -9.11894        1.13290       -2.42904
C         -7.50150        0.43344       -0.78513
C         -8.80617        0.43682       -1.26362
O          1.55979       -2.53455       -2.19965
O         -2.37438       -3.30550       -4.88628
O         -6.09888       -0.89500       -5.49303
O         -5.24813       -3.27138       -1.80836
O         -9.75147       -0.25812       -0.55080
H          2.55910       -3.78270       -4.59285
H         -0.68337       -1.32414       -3.38488
H         -4.50002        2.24415       -5.20865
H         -6.09586        1.47822       -5.31707
H          1.52530       -5.14419       -4.16517
H         -1.22052       -2.33510       -2.04850
H         -6.06516        3.49112       -3.80249
H         -4.84780        2.71366       -2.79196
H         -3.97047        0.41936       -3.53083
H          4.02398       -3.09964       -1.93883
H          5.21086       -4.39941       -2.09033
H          1.88431       -6.21521       -1.75001
H          3.51121       -6.10072       -1.06954
H          3.67914       -5.71797       -3.47978
H         -0.38326       -3.92462       -4.28078
H         -3.25376       -1.51154       -2.43834
H         -4.89122       -2.88959       -4.45646
H         -5.52497       -1.24043       -1.95844
H         -7.53694       -1.37696       -3.39972
H         -7.33268       -3.13815       -3.53510
H         -7.72159       -2.40298       -1.96091
H         -8.36619        2.34050       -4.03076
H        -10.13912        1.13730       -2.80913
H         -7.25262       -0.11517        0.11590
H         -5.50416        1.12193       -1.07224
H        -10.58012       -0.25972       -1.04348
H         -5.22226       -3.00487       -0.87251
H          2.38857       -4.75559       -0.88113
H          4.74377       -3.45092       -3.51202
O          2.91992       -1.07613       -4.33304
O         -4.78907       -2.01880        0.81424
N          4.19943        1.58892        3.72122
C          4.82848        1.55615        2.50952
O          4.99954        0.50478        1.90857
H          4.41095        3.27261        1.34915
H          5.43227        3.63567        2.76284
H          6.12064        2.79995        1.34123
H          4.02272        2.49967        4.12067
