237       
inactive_Val51_TS2 Energy: -3585516.9712115
H 5.103500 0.923143 0.873765
H 3.921827 1.484881 0.091002
H -2.777691 -0.547681 -4.247205
H -2.560915 0.860292 -3.770295
N 4.401505 3.873516 2.549651
N 2.493382 4.933925 0.924354
N -1.288745 3.243696 2.106945
N 0.431480 6.156709 2.207903
C 3.238385 2.583814 4.236536
C 3.598251 3.921266 3.640320
C 4.742657 5.079901 1.834437
C 3.592928 5.714425 1.054906
C 1.361840 5.290170 0.100223
C 0.219542 5.937625 0.895960
C 0.893278 4.049598 -0.692979
C -0.277161 3.261407 -0.095306
C -0.170395 2.967632 1.382677
C -0.597428 6.770402 3.019865
O 3.151941 4.984439 4.082924
O 3.689357 6.841650 0.585468
O -0.846456 6.219316 0.345470
O 0.821811 2.452094 1.907415
H 2.907634 2.731334 5.266622
H 5.534124 4.844141 1.117892
H -0.185534 6.969048 4.010824
H -0.935725 7.706110 2.566249
H -1.468298 6.110712 3.118958
H 5.115937 5.839718 2.525276
H 2.412104 2.174238 3.645200
H 4.060556 1.860442 4.198434
H -1.227500 3.193099 3.115889
H -1.974072 3.879489 1.722825
H 4.596894 2.983149 2.084922
H 2.520996 3.992286 1.295612
H 1.317448 5.890498 2.622798
H -2.344598 1.201871 -1.087098
H -2.831849 1.127897 0.511248
H 0.594876 4.348422 -1.700688
H 1.762126 3.394430 -0.810488
H 1.707143 6.060380 -0.596801
H -0.329390 2.300159 -0.611696
H -1.215817 3.779622 -0.304269
H -4.005699 0.506544 -0.764506
N -2.448546 -4.090798 0.359985
N 2.385823 -0.545480 1.489568
C 1.907740 -1.334838 0.311661
C -3.808456 -3.833044 -1.689158
C -2.851258 -4.639259 -0.805782
C -3.807756 -2.319486 -1.547231
C -1.433333 -4.731984 1.185601
C -1.447595 -4.142074 2.593608
C -0.353817 -4.700431 3.515124
C 1.059517 -4.342865 3.039229
C -0.569386 -4.188908 4.943244
C 2.406490 -0.620014 -0.950870
C 0.381036 -1.538171 0.305842
C -0.472068 -0.315519 -0.042526
C -1.984159 -0.654209 -0.115092
O -2.522539 -5.780305 -1.155708
O -2.459521 -1.309370 0.883302
O 2.460648 -1.282802 -2.007516
O 2.692498 0.609213 -0.836632
S -2.174476 -1.587649 -1.864058
H -4.819441 -4.212143 -1.483177
H -1.630711 -5.808451 1.209333
H -0.445522 -4.595981 0.724939
H -3.574696 -4.126794 -2.717150
H -2.540065 -3.075939 0.507500
H -1.352543 -3.049099 2.532910
H -2.433445 -4.341136 3.038670
H -0.447309 -5.797789 3.524381
H 0.189918 -4.589067 5.626654
H -0.501134 -3.094335 4.968799
H -1.555745 -4.475505 5.328873
H 1.810740 -4.772769 3.714060
H 1.281784 -4.702806 2.029565
H 1.190963 -3.254651 3.052068
H 0.176359 -2.332520 -0.418712
H 0.074265 -1.922389 1.283685
H -0.355844 0.440041 0.746496
H -0.139685 0.135868 -0.986829
H -4.543938 -1.890283 -2.231355
H -4.094173 -2.010453 -0.534733
H 2.380753 -2.319680 0.373187
H 3.437389 -0.614365 1.578804
H 2.142990 0.443885 1.357932
H 1.947556 -0.860836 2.369312
N 1.293633 -3.886708 -2.281038
C 0.684966 -8.611079 -1.000384
C 1.273526 -7.254911 -0.612588
C 0.810658 -6.153411 -1.559984
C 1.509359 -4.822492 -1.329509
O 2.241148 -4.616214 -0.358172
H -0.410444 -8.573186 -1.002141
H 0.998090 -9.396055 -0.302175
H 1.009294 -8.907559 -2.005846
H 2.368377 -7.302796 -0.610159
H 0.978635 -6.994226 0.410262
H 0.986018 -6.453202 -2.602856
H -0.274713 -6.005545 -1.460741
H 0.538484 -4.003742 -2.939541
H 1.687429 -2.948762 -2.162603
C 8.881131 -3.298840 1.874019
C 7.406260 -2.865990 1.999703
C 7.232244 -1.471905 2.624328
C 5.803737 -0.887927 2.600804
O 5.305286 -0.494693 3.675000
O 5.221797 -0.794359 1.461692
H 8.955174 -4.309474 1.458076
H 9.383470 -3.291663 2.849541
H 9.422498 -2.617005 1.207361
H 6.943938 -2.873112 1.008670
H 6.858985 -3.600148 2.605449
H 7.571809 -1.479046 3.665332
H 7.876664 -0.764197 2.084692
N 0.163173 2.729125 -3.989945
N 3.423062 1.244654 -3.542885
N 4.670960 -1.232467 -4.076054
C -2.065128 3.681212 -4.356941
C -1.116430 2.777378 -3.595388
C -2.896638 4.665823 -3.512098
C -3.843954 3.984191 -2.519552
C -2.009334 5.700541 -2.819217
C 1.079999 1.741838 -3.461989
C 2.421254 1.858015 -4.190195
C 4.802759 1.222798 -3.974616
C 5.233473 -0.119519 -4.603725
C 5.710511 1.508590 -2.748381
C 7.183623 1.613002 -3.119671
C 5.167761 -2.571255 -4.355981
C 5.726867 -3.238559 -3.089943
C 6.872310 -2.456691 -2.495831
C 8.130126 -2.459652 -3.100713
C 6.692523 -1.658224 -1.364893
C 9.179713 -1.699245 -2.595098
C 7.726953 -0.881901 -0.855915
C 8.973056 -0.904436 -1.469734
O -1.519565 2.053595 -2.666962
O 2.500729 2.441337 -5.272561
O 6.103156 -0.142684 -5.473993
O 5.276500 2.707076 -2.127631
O 9.967393 -0.124094 -0.932170
H -2.741695 3.001640 -4.891838
H 0.681216 0.729858 -3.611021
H 4.355906 -3.184474 -4.765527
H 5.941330 -2.469573 -5.120419
H -1.509117 4.243912 -5.116942
H 1.215325 1.867820 -2.385440
H 6.050262 -4.254036 -3.354341
H 4.921335 -3.343452 -2.353499
H 3.912787 -1.138668 -3.399307
H -3.289850 3.504964 -1.707929
H -4.520530 4.725549 -2.079328
H -1.338499 6.197406 -3.530854
H -2.612310 6.470611 -2.327137
H -3.521367 5.197884 -4.243742
H 0.487992 3.215621 -4.818099
H 3.225816 0.964588 -2.578535
H 4.945499 1.995160 -4.734181
H 5.575026 0.672707 -2.047492
H 7.557246 0.688362 -3.566907
H 7.328773 2.431704 -3.832631
H 7.764014 1.826334 -2.216469
H 8.295152 -3.061639 -3.991537
H 10.152276 -1.716985 -3.084101
H 7.556872 -0.250207 0.008278
H 5.733709 -1.630059 -0.852743
H 10.733838 -0.144471 -1.516584
H 5.236021 2.537264 -1.169949
H -1.395182 5.247292 -2.035302
H -4.452170 3.209726 -2.998827
N -7.439689 0.722031 -1.355713
N -5.251017 0.582294 -1.244585
C -8.900477 -0.548639 -3.794354
C -7.940565 0.651093 -3.808262
C -6.989624 0.651963 -2.653388
C -5.623734 0.568017 -2.575297
C -6.376439 0.676611 -0.544295
H -8.338734 -1.487050 -3.867357
H -9.586312 -0.494247 -4.648108
H -9.497115 -0.581264 -2.876568
H -7.353557 0.662950 -4.734036
H -8.527953 1.577952 -3.787407
H -8.458874 0.830718 -1.079299
H -4.890835 0.497389 -3.369422
H -6.424445 0.679000 0.531816
C -13.978886 -0.138717 -2.012529
C -13.564207 0.121748 -0.562770
C -12.351347 1.043942 -0.425120
C -10.984188 0.423833 -0.794854
O -10.917326 -0.797445 -1.033506
O -10.016877 1.252305 -0.802155
H -13.153648 -0.608857 -2.555941
H -14.236717 0.799262 -2.522282
H -14.850668 -0.802702 -2.066972
H -14.413558 0.562048 -0.019245
H -13.330519 -0.834175 -0.081719
H -12.482839 1.952880 -1.027005
H -12.260564 1.388913 0.613541
N -2.793250 0.617193 -0.373868
O -2.934892 0.367074 -4.521589
O 4.733656 1.780652 0.558169
N -4.157620 -0.788995 3.890641
N -1.121204 0.892598 4.323473
N 1.971624 -0.407530 5.780066
C -5.344165 -2.387734 2.468004
C -4.871701 -0.980668 2.745316
C -3.516955 0.486894 4.131093
C -2.202461 0.268530 4.868742
C -4.369146 1.459968 4.995281
C -3.677507 2.823202 5.113780
C -5.789900 1.637572 4.459465
C 0.115550 0.966657 5.049956
C 1.029604 -0.236733 4.843153
C 3.016760 -1.418505 5.684525
O -5.130275 -0.041268 2.002244
O -2.159940 -0.300291 5.954187
O 0.915301 -0.956208 3.848638
H -4.597923 -2.873840 1.828211
H 2.573824 -2.343608 5.306880
H 3.414141 -1.597772 6.686085
H 3.822328 -1.100995 5.013204
H -5.462653 -2.980194 3.380719
H -6.290842 -2.343972 1.927027
H -3.850386 -1.582089 4.434802
H -3.339380 0.946323 3.152251
H -6.320685 0.684216 4.405349
H -6.353098 2.300986 5.126706
H -5.787484 2.071799 3.455588
H -4.428935 1.010938 5.995112
H -3.558927 3.277095 4.120503
H -4.285744 3.507143 5.714983
H -2.689720 2.756019 5.581878
H -1.080925 0.971566 3.315350
H -0.122352 1.089170 6.110265
H 0.655254 1.855085 4.709559
H 2.014962 0.259396 6.534855
