237       
inactive_int1 Energy: -3585534.7387782
C 0.131045 7.050339 7.018647
C -0.106645 8.449080 6.489329
O -0.948945 9.212295 6.959181
N 0.701241 8.817625 5.455712
C 0.567667 10.113423 4.829467
C -0.662975 10.317930 3.940266
O -0.961999 11.446155 3.560864
N -1.348303 9.196068 3.634990
C -2.512337 9.188678 2.776778
C -3.838863 9.208072 3.563810
O -4.912127 9.094129 2.974682
C -2.466107 8.060665 1.733062
C -2.217292 6.629044 2.263605
C -0.743684 6.321764 2.496214
N -0.093764 5.752593 1.478050
O -0.178906 6.625539 3.565501
N -3.754182 9.429224 4.891932
C -4.942583 9.678203 5.683858
C -4.455194 -5.190663 4.396060
C -4.154861 -3.719954 4.170842
O -4.548811 -3.137255 3.166908
N -3.477471 -3.111643 5.175759
C -3.098245 -1.711961 5.184063
C -1.752996 -1.628864 5.908535
O -1.521351 -2.335681 6.894515
C -4.144884 -0.835098 5.928061
C -3.683910 0.619363 6.073420
C -5.501165 -0.890875 5.221209
N -0.892962 -0.705656 5.445003
C 0.304692 -0.382194 6.164461
C 1.500868 -1.262410 5.796990
O 1.609080 -1.775698 4.684809
N 2.448048 -1.373275 6.745502
C 3.719981 -2.037837 6.506549
C -3.362021 -4.112152 -1.710996
C -2.206726 -4.840392 -1.024847
O -1.594839 -5.730782 -1.630660
C -4.185724 -3.121908 -0.891004
N -1.905448 -4.479918 0.238237
C -0.759339 -5.014622 0.955850
C -0.901727 -4.717790 2.445319
C 0.227088 -5.285029 3.314359
C 1.601004 -4.732160 2.921635
C -0.061316 -4.992851 4.789487
C 2.523281 -7.676775 -1.853794
C 2.488294 -6.295129 -1.215445
C 1.708566 -5.311948 -2.080270
C 1.816379 -3.888326 -1.570261
N 0.708719 -3.130444 -1.710948
O 2.853911 -3.451948 -1.067554
C 9.693847 -1.796678 2.830540
C 8.194694 -1.899298 2.548228
C 7.375094 -1.005870 3.476883
C 5.894666 -0.869952 3.108599
O 5.381084 -1.768042 2.385537
O 5.278589 0.135465 3.567281
C -2.898259 3.983904 -2.585058
C -1.670488 4.070836 -1.682520
O -1.521483 5.009418 -0.887226
C -4.239862 3.855985 -1.834008
C -4.208121 2.699531 -0.832026
C -4.668012 5.160480 -1.156882
N -0.787676 3.067466 -1.828249
C 0.454563 2.931654 -1.109547
C 1.678958 3.428478 -1.894261
O 1.632968 4.442048 -2.578023
N 2.782422 2.663410 -1.707539
C 4.122371 3.137584 -1.984069
C 4.935390 2.217846 -2.916167
O 5.674299 2.699598 -3.774879
C 4.902069 3.328030 -0.648812
C 6.227042 4.046996 -0.858442
O 4.105182 4.042774 0.279164
N 4.847087 0.887931 -2.673272
C 5.749012 -0.085767 -3.269529
C 6.482116 -0.885936 -2.180040
C 7.260199 0.006388 -1.242672
C 8.472463 0.575820 -1.631787
C 6.754097 0.339577 0.016804
C 9.165587 1.444332 -0.793800
C 7.427073 1.215490 0.862015
C 8.637483 1.765670 0.454462
O 9.274920 2.622750 1.317290
C -8.711113 -1.474723 -3.779924
C -8.841509 -0.350846 -2.742855
C -7.926131 -0.558359 -1.576972
C -6.584276 -0.328859 -1.450783
N -8.336269 -1.144366 -0.399153
C -7.283300 -1.271552 0.402039
N -6.208941 -0.769829 -0.205726
C -13.878955 -2.174883 -2.729032
C -13.660843 -3.227225 -1.641234
C -12.856875 -2.703878 -0.451881
C -11.376984 -2.412233 -0.747462
O -10.849615 -2.873197 -1.773948
O -10.783605 -1.704561 0.140612
N 2.820953 -1.029015 2.209255
C 1.868213 -1.275093 1.095992
C 2.234314 -0.429734 -0.140307
O 3.311465 0.225182 -0.120215
C 0.434446 -0.995721 1.553794
C 0.225016 0.480004 1.939077
C -1.243050 0.790614 2.128271
N -1.939075 1.085925 1.023384
O -1.772911 0.769646 3.251001
O 1.405903 -0.421814 -1.079283
O 3.721893 1.836170 2.044687
O -1.215084 0.267524 -1.732609
H -12.915741 -1.839099 -3.125068
H -7.678800 -1.558983 -4.138055
H 1.509164 -8.063127 -2.010173
H 10.270549 -2.457633 2.172918
H -0.557213 6.859336 7.842261
H -2.789091 3.135058 -3.269311
H -9.360649 -1.274409 -4.639224
H -14.410297 -1.300906 -2.330101
H -5.455864 10.584077 5.343149
H -4.642594 9.798945 6.726392
H 1.455389 10.301510 4.219183
H 5.187594 -0.771029 -3.916352
H 0.578752 1.876698 -0.853657
H -4.010855 -4.903814 -2.107036
H -0.708005 -6.093020 0.772371
H -4.288950 -5.726795 3.458890
H 3.552355 -3.072731 6.195294
H 4.296755 -2.025825 7.432928
H 9.927144 -2.068737 3.868567
H 3.065474 -8.395937 -1.228673
H -14.469419 -2.576620 -3.561306
H -9.023275 -2.420950 -3.331632
H -2.932104 -3.602057 -2.582532
H 0.161441 -4.572703 0.554520
H 3.020445 -7.643116 -2.831364
H 10.047145 -0.770933 2.668399
H -5.641372 8.840590 5.600863
H 4.281189 -1.521135 5.720400
H 0.406038 3.507078 -0.180049
H -2.902135 4.894838 -3.194961
H 6.452814 0.473652 -3.890443
H 0.521655 10.884902 5.601289
H -3.848474 -5.643766 5.186278
H -5.512922 -5.295379 4.658339
H 4.025235 4.097651 -2.494344
H -2.514535 10.143375 2.238192
H -0.035307 6.318761 6.219756
H 1.163123 6.943113 7.367589
H -14.635275 -3.589163 -1.283414
H -13.132801 -4.084702 -2.071673
H -13.309090 -1.792324 -0.042056
H -12.870153 -3.438797 0.364321
H -8.614665 0.618747 -3.201874
H -9.873319 -0.314057 -2.381369
H -9.384812 -1.439402 -0.176053
H -7.283301 -1.718939 1.383293
H -5.859944 0.085721 -2.134194
H -2.287627 -3.590392 0.563054
H -0.960839 -3.630046 2.597470
H -1.862238 -5.125490 2.787771
H 0.241681 -6.376867 3.172989
H 0.697354 -5.443968 5.439952
H -0.058191 -3.913157 4.976547
H -1.041817 -5.383382 5.089712
H 2.382457 -5.119163 3.585460
H 1.883690 -4.987517 1.895189
H 1.606553 -3.641623 3.020490
H -3.128500 -3.650863 5.956653
H -3.009046 -1.368000 4.147867
H -5.891899 -1.910145 5.167653
H -6.230092 -0.274652 5.760448
H -5.418863 -0.513286 4.196444
H -4.254901 -1.270903 6.931485
H -3.440396 1.051677 5.096655
H -4.482032 1.218571 6.525669
H -2.798895 0.709981 6.711291
H -1.145964 -0.149321 4.618978
H 0.109856 -0.438475 7.241272
H 0.582754 0.649077 5.918158
H 2.276617 -0.953987 7.645207
H 3.501836 -5.913361 -1.058367
H 2.016926 -6.354455 -0.225639
H 2.122791 -5.311859 -3.099089
H 0.658208 -5.616209 -2.151377
H -0.136687 -3.514660 -2.103069
H 0.779045 -2.133536 -1.510710
H 7.150952 -1.602757 -2.673752
H 5.751461 -1.473817 -1.611872
H 8.884109 0.344643 -2.611845
H 5.811011 -0.092479 0.341454
H 7.010873 1.483853 1.828132
H 10.110587 1.877609 -1.117407
H 10.033444 3.013377 0.868502
H 7.853684 -2.935864 2.642894
H 8.000329 -1.609528 1.510623
H 7.421050 -1.387390 4.508000
H 7.800328 0.003511 3.515169
H 3.819221 -1.394827 2.082772
H 2.941429 -0.023347 2.389914
H 2.475456 -1.439164 3.088574
H 1.978011 -2.323757 0.803321
H -0.243606 -1.276237 0.741887
H 0.193151 -1.631018 2.413471
H 0.741130 0.716497 2.874252
H 0.637349 1.133784 1.163818
H -2.946288 1.058196 1.107270
H -1.568326 0.918744 0.084593
H 2.708030 1.838198 -1.119020
H -1.075713 2.237218 -2.334398
H -4.988092 3.618359 -2.603344
H -3.540481 2.946940 0.001444
H -5.205882 2.508763 -0.420334
H -4.738603 5.978558 -1.882906
H -5.647376 5.042364 -0.679045
H -3.942266 5.457361 -0.394549
H -3.845173 1.770314 -1.289714
H 5.110494 2.329228 -0.248433
H 6.877554 3.494032 -1.542685
H 6.050555 5.046016 -1.271958
H 6.735475 4.148777 0.105242
H -3.431139 8.072847 1.220131
H -1.700809 8.303936 0.988087
H -2.613895 5.921142 1.529869
H -2.751580 6.467699 3.206269
H 0.900442 5.590406 1.569741
H -0.552886 5.494985 0.598096
H 1.170057 8.079808 4.945251
H -2.843039 9.523327 5.321864
H -0.948267 8.293562 3.895884
S -3.270458 -1.636874 -0.305015
H -5.028675 -2.806124 -1.516765
H -4.610849 -3.631667 -0.017550
H 4.401788 1.420537 2.622137
H 3.734864 1.302143 1.222774
H -1.853334 -0.467241 -1.570962
H -0.321340 -0.097742 -1.588613
H 4.244409 0.564486 -1.918283
H 3.942746 3.453623 1.039450
H -5.197796 -0.896560 0.061476
