237       
inactive_Val51_TS3 Energy: -3585518.2646905
H 5.254729 1.087467 0.835969
H 4.056634 1.606705 0.049608
H -3.008564 -0.537432 -4.293758
H -2.572594 0.811693 -3.731924
N 4.455703 3.914228 2.615906
N 2.567532 4.979417 0.983876
N -0.992456 3.254438 2.018053
N 0.466936 6.200028 2.217306
C 3.238380 2.583800 4.236476
C 3.622160 3.933308 3.685473
C 4.798394 5.138602 1.932439
C 3.654689 5.772855 1.143535
C 1.449222 5.322040 0.134828
C 0.257775 5.892624 0.922102
C 1.076682 4.103156 -0.738483
C -0.020351 3.175221 -0.195531
C 0.075771 2.870708 1.279651
C -0.597374 6.769491 3.020247
O 3.166589 4.985314 4.143859
O 3.742700 6.909524 0.696418
O -0.834916 6.056672 0.376309
O 1.032382 2.277322 1.796363
H 2.965607 2.695649 5.288224
H 5.606233 4.925537 1.227375
H -1.038627 7.628856 2.508899
H -1.395762 6.038415 3.201169
H -0.179247 7.083572 3.978068
H 5.148456 5.888321 2.645871
H 2.365717 2.234845 3.672130
H 4.029037 1.831963 4.131448
H -0.934321 3.187897 3.025577
H -1.637520 3.931331 1.631090
H 4.661147 3.039585 2.128383
H 2.619536 4.026425 1.321902
H 1.363295 5.988764 2.640235
H -2.217885 1.546576 -1.046243
H -2.584704 1.598702 0.572103
H 0.746760 4.442551 -1.723033
H 1.998799 3.536094 -0.901764
H 1.786659 6.138334 -0.512961
H 0.034771 2.221430 -0.724975
H -1.000358 3.600907 -0.418824
H -3.590315 0.842875 -0.496690
N -2.530208 -4.190405 0.389316
N 2.585231 -0.411002 1.513965
C 2.219699 -1.290581 0.366060
C -3.808431 -3.833054 -1.689157
C -2.839869 -4.669557 -0.839780
C -3.759737 -2.315470 -1.451212
C -1.433342 -4.731977 1.185564
C -1.469392 -4.164518 2.602066
C -0.390946 -4.737229 3.533278
C 1.031973 -4.383302 3.085805
C -0.626675 -4.237823 4.962464
C 2.651462 -0.593772 -0.930510
C 0.727653 -1.646156 0.343081
C -0.223258 -0.489438 0.002355
C -1.649012 -1.013615 -0.042730
O -2.405892 -5.742982 -1.265338
O -2.202900 -1.440106 0.961575
O 2.722491 -1.304947 -1.956278
O 2.857451 0.651682 -0.877530
S -2.098360 -1.603251 -1.715437
H -4.828095 -4.188178 -1.491460
H -1.525451 -5.823308 1.202716
H -0.475862 -4.499490 0.699959
H -3.581271 -4.073954 -2.730973
H -2.722866 -3.210912 0.583268
H -1.370835 -3.071539 2.561841
H -2.460539 -4.373997 3.029601
H -0.491438 -5.833755 3.531205
H 0.119316 -4.649515 5.653266
H -0.549860 -3.143745 4.997994
H -1.621216 -4.518629 5.329961
H 1.768230 -4.843746 3.756929
H 1.263125 -4.714850 2.068337
H 1.178590 -3.297311 3.133168
H 0.611096 -2.446980 -0.392414
H 0.450160 -2.067572 1.314780
H -0.179847 0.272596 0.783633
H 0.037652 -0.021412 -0.953021
H -4.447225 -1.798961 -2.126493
H -4.073687 -2.022779 -0.442688
H 2.784825 -2.219989 0.477943
H 3.639349 -0.408813 1.626036
H 2.262742 0.551710 1.341144
H 2.148839 -0.731400 2.391828
N 1.709475 -3.965152 -2.291364
C 0.683997 -8.612047 -1.000006
C 1.343695 -7.291041 -0.603119
C 0.971590 -6.164443 -1.562968
C 1.703895 -4.862636 -1.278467
O 2.258914 -4.636637 -0.201326
H -0.406777 -8.508370 -1.025326
H 0.935225 -9.409970 -0.291859
H 1.011450 -8.932557 -1.996921
H 2.433726 -7.406117 -0.574921
H 1.041662 -7.007465 0.411002
H 1.176738 -6.465814 -2.599587
H -0.109741 -5.970694 -1.504956
H 1.111125 -4.106652 -3.090553
H 2.084637 -3.024604 -2.134195
C 8.882182 -3.299731 1.874362
C 7.428882 -2.814882 2.028841
C 7.319695 -1.407516 2.639837
C 5.903293 -0.803761 2.628879
O 5.360465 -0.513463 3.713334
O 5.362821 -0.608893 1.481183
H 8.911908 -4.316741 1.468541
H 9.407376 -3.299610 2.837774
H 9.430776 -2.644380 1.187481
H 6.945418 -2.814995 1.047609
H 6.869354 -3.521234 2.656007
H 7.676732 -1.417147 3.674884
H 7.973397 -0.729374 2.075366
N 0.229040 2.819143 -4.051242
N 3.483982 1.284145 -3.632869
N 4.707133 -1.216200 -4.105958
C -2.065106 3.680806 -4.357880
C -1.058983 2.786571 -3.660935
C -2.807357 4.693876 -3.462961
C -3.696598 4.044205 -2.399780
C -1.844804 5.709111 -2.846256
C 1.160427 1.833175 -3.545927
C 2.498395 1.932964 -4.277370
C 4.866402 1.233911 -4.056694
C 5.275526 -0.124541 -4.668045
C 5.771018 1.518907 -2.829259
C 7.250365 1.567845 -3.187985
C 5.168751 -2.571221 -4.356013
C 5.700615 -3.228658 -3.073241
C 6.857649 -2.463254 -2.480690
C 8.122197 -2.507823 -3.069597
C 6.684813 -1.640290 -1.366357
C 9.184060 -1.764360 -2.564123
C 7.731372 -0.881035 -0.857119
C 8.983806 -0.945326 -1.455071
O -1.410441 2.000496 -2.768024
O 2.594103 2.521537 -5.353962
O 6.127863 -0.176165 -5.554104
O 5.364847 2.744657 -2.243321
O 9.990766 -0.181587 -0.917486
H -2.792981 2.997394 -4.812453
H 0.755275 0.822957 -3.689423
H 4.344605 -3.173002 -4.759192
H 5.949882 -2.507546 -5.117424
H -1.572528 4.222980 -5.175259
H 1.311923 1.953783 -2.470660
H 6.002583 -4.255894 -3.316503
H 4.885603 -3.301243 -2.343573
H 3.982751 -1.094877 -3.397140
H -3.105906 3.535467 -1.633469
H -4.303600 4.810001 -1.903327
H -1.195929 6.165168 -3.604686
H -2.391511 6.509783 -2.337709
H -3.468689 5.236247 -4.153785
H 0.533153 3.334174 -4.868721
H 3.286155 1.014277 -2.666056
H 5.026197 1.994824 -4.824350
H 5.603192 0.704296 -2.110213
H 7.601268 0.617443 -3.598633
H 7.427697 2.356483 -3.926902
H 7.828582 1.793874 -2.286371
H 8.283265 -3.130011 -3.947163
H 10.161784 -1.815048 -3.040321
H 7.564586 -0.234032 -0.003824
H 5.719514 -1.578537 -0.869963
H 10.764804 -0.232628 -1.489941
H 5.356476 2.617669 -1.278576
H -1.210208 5.245573 -2.085064
H -4.373356 3.297221 -2.825984
N -7.610250 0.998941 -1.406855
N -5.395376 0.910179 -1.356268
C -8.900476 -0.548639 -3.794354
C -8.169738 0.798212 -3.838016
C -7.197673 0.921753 -2.712686
C -5.826214 0.868940 -2.664057
C -6.500817 0.987232 -0.638280
H -8.178627 -1.371886 -3.852085
H -9.595405 -0.643600 -4.638886
H -9.474569 -0.657626 -2.866888
H -7.623886 0.909545 -4.782964
H -8.905208 1.611395 -3.789766
H -8.608592 1.055713 -1.090134
H -5.124416 0.805611 -3.487492
H -6.534567 1.016832 0.440288
C -13.978914 -0.138707 -2.012529
C -13.639420 -0.093092 -0.522252
C -12.501080 0.873345 -0.197093
C -11.097777 0.436053 -0.683087
O -10.923974 -0.757704 -1.005484
O -10.226292 1.358930 -0.679088
H -13.102247 -0.461174 -2.582412
H -14.280496 0.852222 -2.377628
H -14.799694 -0.837742 -2.217997
H -14.536493 0.195193 0.046594
H -13.349463 -1.096066 -0.191304
H -12.707911 1.871147 -0.604648
H -12.423093 1.003912 0.891232
N -2.599541 1.018590 -0.263440
O -2.972585 0.398898 -4.519273
O 4.861556 1.929340 0.509893
N -4.195973 -0.590726 3.660700
N -1.097445 0.894808 4.233361
N 1.938746 -0.441652 5.794277
C -5.344140 -2.387720 2.467991
C -4.773553 -0.990138 2.490930
C -3.489485 0.668966 3.750911
C -2.309687 0.484005 4.699403
C -4.376091 1.824036 4.292622
C -3.602310 3.145399 4.345219
C -5.652234 2.001638 3.468198
C 0.056889 0.909283 5.091116
C 1.026818 -0.240594 4.832340
C 3.016777 -1.418521 5.684497
O -4.827801 -0.258245 1.515858
O -2.480289 0.088880 5.849168
O 0.979775 -0.894706 3.788397
H -4.635388 -3.044462 1.950677
H 2.606096 -2.356258 5.300610
H 3.424119 -1.590923 6.682819
H 3.811104 -1.070720 5.014899
H -5.528300 -2.797475 3.466361
H -6.275197 -2.375548 1.897859
H -4.140794 -1.216114 4.450625
H -3.148515 0.915199 2.739513
H -6.264599 1.096969 3.471014
H -6.253754 2.816988 3.886264
H -5.421129 2.240116 2.425171
H -4.653482 1.543180 5.317129
H -3.335664 3.465537 3.330494
H -4.226740 3.932202 4.780830
H -2.687217 3.076864 4.944520
H -0.939244 0.877409 3.233521
H -0.302356 0.883107 6.122965
H 0.607934 1.844624 4.939088
H 1.923740 0.170962 6.594948
